156
Lattice="18.6238 0.0 0.0 9.311900000000001 16.128683915000625 0.0 9.311900000000001 5.376227971666877 15.20626902388178" Properties=species:S:1:pos:R:3:spacegroup_kinds:I:1:momenta:R:3:force_mace:R:3:forces:R:3 spacegroup="P 1" unit_cell=conventional energy_mace=-1093.9610406591455 energy=-1093.9610406591455 free_energy=-1093.9610406591455 stress="0.004096372415242063 0.0005902598887283178 0.0013633486098996157 0.0005902598887283178 0.0028889450351976846 0.00011848156743251763 0.0013633486098996157 0.00011848156743251763 0.002381088689530383" pbc="T T T"
Cu      14.87267312       3.71917870       7.45862240        0       1.67203343       0.80614444      -4.63840569      -0.25465658       0.21021333       0.02484308      -0.25465658       0.21021333       0.02484308
Cu      14.18293144      12.93390259      14.21706857        1       0.40719236      -0.19896953      -0.02595076       0.58908890      -0.87026961       1.01278548       0.58908890      -0.87026961       1.01278548
Cu      23.02106273      17.57008307       7.36347991        2       1.66328580      -1.44619308       0.44614946       0.91745275       0.86804032       1.28293876       0.91745275       0.86804032       1.28293876
Cu      22.43337036       8.33399557       1.03917268        3       0.18043217       2.94071902      -5.27881113      -1.84384026      -0.37033369      -0.49686853      -1.84384026      -0.37033369      -0.49686853
Cu      22.28724920      13.13182372      14.26388561        4       1.47884776       2.54073240       2.37490216       0.95007458       0.56175214      -0.31335805       0.95007458       0.56175214      -0.31335805
Cu      15.02643563      17.78495892       7.76383361        5      -0.63906985      -3.17699867       0.59881526       0.13441463       0.13518429      -0.11448211       0.13441463       0.13518429      -0.11448211
Cu      14.28592152       8.35905355       1.05572358        6      -1.13907680       1.05331694       0.14500821       0.15579049      -0.33452466      -0.11836210       0.15579049      -0.33452466      -0.11836210
Cu      23.10744956       3.90081840       7.92248461        7      -3.14251023      -1.48229564      -0.33219578       0.70964762      -0.52400626      -1.56716986       0.70964762      -0.52400626      -1.56716986
Cu      18.42977552      15.40972120       0.98791305        8      -0.16708618       4.79681118      -1.40819726       0.19196293      -0.79225834      -0.18549826       0.19196293      -0.79225834      -0.18549826
Cu      10.40668319      10.87004210       7.57853748        9      -1.47807311       0.56763921      -0.87013097       0.17970643       0.62951139      -0.40587393       0.17970643       0.62951139      -0.40587393
Cu      18.41623897       6.03906326      14.25021615       10       2.95813485      -0.51196263       1.71957119      -0.03760749      -0.30134245      -0.73538105      -0.03760749      -0.30134245      -0.73538105
Cu      26.59894328      10.97781322       7.53702043       11      -1.88519348      -0.64199314       0.10066687      -0.02082510      -0.11498742      -1.15330377      -0.02082510      -0.11498742      -1.15330377
C       13.58748239       4.06101769       2.88429796       12       1.34431637       0.87860204      -0.58628265      -1.17931311      -0.33029443      -0.86460636      -1.17931311      -0.33029443      -0.86460636
C        9.13271909       8.69721898       1.37088368       13      -0.64730386      -1.39663519      -0.19366997      -1.46831977      -1.45222704       0.68546692      -1.46831977      -1.45222704       0.68546692
C        9.65426143       4.18935204       8.42618951       14       1.23831921      -0.26003425       1.02472090       0.92523740      -2.46558531       0.46361001       0.92523740      -2.46558531       0.46361001
C        5.12631313       4.55472259       3.34337829       15      -0.18508399      -0.87399720       0.34882086       1.33993748      -2.44072020      -2.84376510       1.33993748      -2.44072020      -2.84376510
C       12.55414243       3.20056437       0.85605513       16      -0.76866912      -0.67832397      -0.81107516      -0.99344749       2.02642329      -1.61685357      -0.99344749       2.02642329      -1.61685357
C        6.81119303       2.67056426       3.37333446       17       2.42617654      -1.83292525      -0.60538860       0.55704219      -0.40467407      -3.61062044       0.55704219      -0.40467407      -3.61062044
C       10.19997988       9.79640986       3.16695860       18      -1.13027453      -1.29175161      -1.09784312       1.99240852      -1.62417393      -1.41437790       1.99240852      -1.62417393      -1.41437790
C        8.38211036       6.18108300       7.88996806       19       0.44593096       0.96629732       1.11343402      -0.47950265       0.65816438       0.66966818      -0.47950265       0.65816438       0.66966818
C       12.36924876       2.03482313       3.00434872       20       1.68289916       0.67417194      -1.74614803      -0.71875794      -0.88522264      -2.11196963      -0.71875794      -0.88522264      -2.11196963
C       10.85639324       6.21386904       8.16219960       21      -0.02848792       1.19917475       0.03749600       1.18591428      -0.06303311       0.10881565       1.18591428      -0.06303311       0.10881565
C        6.60504843       3.96114889       1.33296423       22      -2.44562377       0.23238354      -1.02110826      -1.40231977       2.32394520      -1.91236538      -1.40231977       2.32394520      -1.91236538
C        7.77437864       9.75851132       3.09923880       23       1.70757823       0.40856336      -1.45844652       1.82519469      -1.72411375      -2.16825736       1.82519469      -1.72411375      -2.16825736
C       26.28632992      11.80131248      12.15802288       24      -1.21086200      -1.22229227      -0.77210822      -1.53378725      -2.15583256      -0.21973573      -1.53378725      -2.15583256      -0.21973573
C       24.82162643      17.72889270      14.14549422       25      -0.68403537      -1.37663741       1.26702228       0.28730708       1.29571250      -1.99526932       0.28730708       1.29571250      -1.99526932
C       29.56672048      15.61092437       7.01727703       26      -1.16815338      -0.76906928      -0.12341501      -0.76401965      -1.78648739       0.09920856      -0.76401965      -1.78648739       0.09920856
C       31.02653402      19.34130991      12.12158534       27      -0.20790785      -1.01064196       0.04276567      -0.08268360       1.22098986      -0.06628297      -0.08268360       1.22098986      -0.06628297
C       27.59487906      12.32906733      14.06436441       28      -0.25911274       0.44623198      -0.23006249       2.02632520      -0.10653605       2.43156262       2.02632520      -0.10653605       2.43156262
C       31.92624549      17.07384797      12.10431513       29       0.26830411      -0.57829507       0.57300839       0.06479034       1.56975916       2.45027040       0.06479034       1.56975916       2.45027040
C       23.72974008      17.05179562      12.00209083       30       0.68355621       1.25668674       0.35605035       0.39860613       2.22585236      -1.94685229       0.39860613       2.22585236      -1.94685229
C       28.32334254      17.75064100       7.43499181       31      -1.16425258       0.50465657      -0.30211063       2.19581829      -3.58092396      -2.01725800       2.19581829      -3.58092396      -2.01725800
C       28.72266330      11.64542815      12.05957081       32       1.45862268      -0.35596676      -0.53747464       1.52187054      -0.38000376       1.23442487       1.52187054      -0.38000376       1.23442487
C       27.11832536      15.61033444       6.75074521       33       0.21568315      -0.06238594      -0.48519711       1.03077724      -0.43198800       0.76079133       1.03077724      -0.43198800       0.76079133
C       30.61537276      17.81865512      14.01567444       34       0.26389383       0.09168175       0.36034926       1.04710182       0.78306112      -2.01622741       1.04710182       0.78306112      -2.01622741
C       24.86197720      19.21898107      12.12088410       35      -0.51303285       1.60291291      -0.16599476       0.00078054      -1.25230849       1.59028126       0.00078054      -1.25230849       1.59028126
C       13.51766772       2.88039584       5.11956816       36      -0.21719453      -1.22681898       0.41683081      -0.50981478       0.22291059      -2.56827461      -0.50981478       0.22291059      -2.56827461
C       13.05149150       3.02024568       3.62923224       37      -0.29386961      -0.25555025       0.21556428       1.20832095      -0.03038755       1.62105210       1.20832095      -0.03038755       1.62105210
C        6.57985862       8.58818393       1.09851431       38       0.16583427      -0.57612112       0.98733281       0.21060525      -1.75264622      -0.90343429       0.21060525      -1.75264622      -0.90343429
C        7.82330033       8.91529283       1.93791212       39       0.41859800       0.28514319       2.18407364       0.75148318       1.66288959       0.07593644       0.75148318       1.66288959       0.07593644
C       12.24335654       4.10526439       8.13857458       40      -0.00860876      -0.60598361      -1.18654586      -1.60294787      -1.03312470      -0.05955031      -1.60294787      -1.03312470      -0.05955031
C       10.89724807       4.81483433       8.24155456       41      -0.52482032      -0.00691164       0.38042572       0.07491760       0.71839132       0.33288207       0.07491760       0.71839132       0.33288207
C        4.87669002       5.83174862       1.34651053       42      -0.54916349      -2.19173645       0.04111875      -0.87637274       2.99244001      -3.16291927      -0.87637274       2.99244001      -3.16291927
C        5.62055534       4.79861071       1.99646907       43      -0.23272319      -0.50593222       0.21795462      -0.78538146      -0.20079488       1.82029368      -0.78538146      -0.20079488       1.82029368
C       13.53195578       5.63256603       0.88809245       44       0.75183764      -0.33136882       1.82987210      -1.14967015      -0.28053491      -0.62296415      -1.14967015      -0.28053491      -0.62296415
C       13.19420088       4.23293922       1.58233244       45      -0.03821012       0.39708477      -0.67749190       0.39181483       1.10738829      -2.28006236       0.39181483       1.10738829      -2.28006236
C        5.63691862       3.21912739       5.32748335       46       1.31950276       1.54388346       0.36617876      -1.02446888      -0.07967821       0.55690013      -1.02446888      -0.07967821       0.55690013
C        5.90384297       3.49110895       3.93609726       47       0.56946744       0.09479189      -0.17777454      -0.85541821       1.08043286       0.53218139      -0.85541821       1.08043286       0.53218139
C       11.57511456       8.71854678       1.15568492       48       0.19696071       0.61152470       0.06177456      -0.54830722       0.98690960       4.20952420      -0.54830722       0.98690960       4.20952420
C       10.35189670       9.07109938       1.92691407       49      -1.35865504       0.00658413       0.22105818      -2.10158649       1.01152439       0.76647009      -2.10158649       1.01152439       0.76647009
C        7.24321734       3.90911330       8.33377379       50       0.71548616       0.43672706       0.37574123      -0.09794884       1.86897292      -1.55924061      -0.09794884       1.86897292      -1.55924061
C        8.45927838       4.82452256       8.12753174       51      -1.47519029      -0.92858773       1.03510297      -1.06762174      -1.46818794       1.21662487      -1.06762174      -1.46818794       1.21662487
C       11.03331670       1.24301816       0.97376848       52       0.20037725       0.77605622       0.38511914       1.25904079      -1.28171200       1.40742518       1.25904079      -1.28171200       1.40742518
C       12.07559759       2.14718740       1.57401055       53       2.08884959       0.45995240      -0.28961386      -0.53679006      -1.08185410       2.01575003      -0.53679006      -1.08185410       2.01575003
C        9.48430721       8.32758255       7.48286287       54      -1.86539938      -0.38946174      -0.23215888      -0.70276209      -0.45938926       1.75618495      -0.70276209      -0.45938926       1.75618495
C        9.62635095       6.80230134       7.90348460       55       0.78675243      -0.68631158       0.24107265      -0.64588851       2.98374575      -1.21695714      -0.64588851       2.98374575      -1.21695714
C        7.70433973       1.78046383       1.07180225       56       1.24522299      -1.59917322       0.88236121       0.29699886       0.35762745      -0.98585618       0.29699886       0.35762745      -0.98585618
C        7.01072166       2.84779760       1.89524422       57      -0.02995424       0.34331559      -0.75400690       1.34118097      -2.88611874       3.13800550       1.34118097      -2.88611874       3.13800550
C        9.03064260      10.73539188       5.04241662       58       0.28936574      -1.37549595       0.00383066       1.18846177       0.08957667       1.44731303       1.18846177       0.08957667       1.44731303
C        8.99303302      10.06640125       3.76067731       59      -0.14551751       0.33950141       0.95457436      -0.71843087       0.22175897      -1.49359271      -0.71843087       0.22175897      -1.49359271
C       27.51438163      11.20125579      10.02694590       60       0.18567909      -0.64436795      -0.65851260       0.16284547      -1.15537487       0.48242194       0.16284547      -1.15537487       0.48242194
C       27.47757622      11.32088318      11.54818402       61      -1.09390563       0.34970944      -0.46113675      -0.46639667       1.81226870      -2.07750514      -0.46639667       1.81226870      -2.07750514
C       25.96304064      19.93632712      14.30149786       62      -0.79221426      -0.41112303       1.02341134       0.45334027      -0.58564298      -0.65330894       0.45334027      -0.58564298      -0.65330894
C       25.20894128      18.93113645      13.50738813       63      -0.47097181      -0.20280968       0.63822211      -1.08136140      -0.91824034      -0.07368406      -1.08136140      -0.91824034      -0.07368406
C       28.19734793      13.36407030       7.09950501       64       0.25853235       0.63856666       0.04307963      -1.75422406       0.95206053      -0.11668394      -1.75422406       0.95206053      -0.11668394
C       28.26772787      14.81932739       6.88572484       65      -0.39154146      -0.11648159      -0.11281369       1.64473618       3.10759083      -0.13486104       1.64473618       3.10759083      -0.13486104
C       29.35370696      19.93001449      14.05775910       66      -0.97863762       0.72206617      -0.74616212       1.26575440      -0.21926188      -2.19534030       1.26575440      -0.21926188      -2.19534030
C       30.43848712      19.10911483      13.39803332       67      -1.06340977      -0.14065892      -0.77525333       0.14064396      -1.48371739      -0.18702368       0.14064396      -1.48371739      -0.18702368
C       25.21423989      12.65621025      14.40827817       68       0.16590224      -0.53822443       0.08056564      -1.59800240       0.00919425      -2.07529997      -1.59800240       0.00919425      -2.07529997
C       26.33984873      12.07276656      13.53944636       69      -0.62612326       0.73101158      -0.21204092      -0.18008222       1.53612584       0.63481149      -0.18008222       1.53612584       0.63481149
C       32.46018877      18.43551442      10.17895333       70       1.58844200      -0.15853850      -0.47942087      -0.29972184       0.33451727       1.07295937      -0.29972184       0.33451727       1.07295937
C       31.88607027      18.37013153      11.52727137       71       1.31046537       0.06629835      -0.50929358      -1.61269099      -1.28142254       1.48261650      -1.61269099      -1.28142254       1.48261650
C       23.45204388      15.67029732      14.03439068       72      -1.37699772       0.62633457      -0.38964383      -1.63503949      -2.57743441      -1.22009478      -1.63503949      -2.57743441      -1.22009478
C       24.06111855      16.82550898      13.27114072       73       0.28584208      -0.19058581       1.23289963       0.70869699      -0.37547357       4.90565448       0.70869699      -0.37547357       4.90565448
C       30.98536403      17.62177108       7.30916400       74      -0.28655933       0.73741839      -0.21727235      -1.76283172       1.50544930      -0.74944996      -1.76283172       1.50544930      -0.74944996
C       29.57887452      16.99424069       7.10828396       75       0.09200054      -0.80060564      -0.14105446      -0.50151418       1.11483621       1.81361976      -0.50151418       1.11483621       1.81361976
C       30.21553206      12.31632922      14.09654471       76      -1.40255255       0.52206193       0.68551854      -2.07426560       1.28173819      -2.41283195      -2.07426560       1.28173819      -2.41283195
C       28.78243452      12.08390461      13.38066636       77      -0.33749260       0.89759229      -1.04599250       1.18945211      -0.46248578       0.13924013       1.18945211      -0.46248578       0.13924013
C       25.89876148      17.78232796       6.84677763       78       0.05248188       0.30107714      -1.02427799      -2.03038921      -0.72025776       0.57538747      -2.03038921      -0.72025776       0.57538747
C       27.21776975      17.02427631       7.01826649       79       0.32387561       0.61925640       0.60191594      -2.17051378       0.76894731      -0.42579406      -2.17051378       0.76894731      -0.42579406
C       31.64325194      15.61569925      14.29668390       80      -0.25779418       0.59049691      -0.66785063      -0.71047719      -2.35744171       1.13486612      -0.71047719      -2.35744171       1.13486612
C       31.38992784      16.84838644      13.41093597       81      -0.05018331       0.29412351       2.01024487       0.16433229      -0.55357188       0.12827083       0.16433229      -0.55357188       0.12827083
C       24.10789913      18.51199841       9.89089035       82       0.31855523      -0.44347062      -0.34578827       0.29013086       0.18615958       0.19818359       0.29013086       0.18615958       0.19818359
C       24.23475340      18.26732535      11.33630085       83       0.38675021       1.76006178      -1.21441815      -0.40333435      -1.02181663       1.50741245      -0.40333435      -1.02181663       1.50741245
O       14.20787704       3.84736282       5.51657023       84      -1.16185883       2.30131206      -1.40057223       0.59879401       0.34903375       1.13669011       0.59879401       0.34903375       1.13669011
O       15.97562286      13.10591837      15.32550630       85      -0.01061014      -0.54444133      -0.66673435       0.79471036       1.24366431       0.42821653       0.79471036       1.24366431       0.42821653
O       21.43082517      18.97477506       8.19569743       86       0.36842398       0.81178038      -0.52712162       0.37729983      -0.80451621      -0.08089127       0.37729983      -0.80451621      -0.08089127
O       22.75652026       6.73311267       2.00791318       87       0.34463566      -0.46091474      -0.54222282       1.51969138      -2.25792000      -0.65915526       1.51969138      -2.25792000      -0.65915526
O       22.18642574      11.37601565      14.99895874       88      -0.57605933       1.59744382       0.14503828       0.31632713      -1.40511287       1.71729979       0.31632713      -1.40511287       1.71729979
O       15.19357859      18.21694151       5.81121130       89       1.19428889       1.39168900      -0.78001378       1.01379003      -1.49047354       0.82703107       1.01379003      -1.49047354       0.82703107
O       12.59255609       8.59099257       1.90556006       90       0.44592070       0.82602233       2.01517820       1.30945198      -0.13387771       0.65687511       1.30945198      -0.13387771       0.65687511
O       24.76208981       4.60704875       8.36315514       91       0.74908099      -0.32071760       0.79522959       1.06756781      -0.49710441       0.35974853       1.06756781      -0.49710441       0.35974853
O       20.06666043      16.23177952       1.56097646       92      -1.48870095       0.03500491      -0.81243987       0.13899703       0.83436975      -0.09031698       0.13899703       0.83436975      -0.09031698
O       10.55480477       8.96860587       7.27604731       93      -0.44797437      -0.49133175       0.78222813       0.73578419       0.16061429      -0.20848692       0.73578419       0.16061429      -0.20848692
O       17.25491166       7.39410029      14.99411156       94       1.89754658       0.62951687       0.36583317      -0.63409938      -0.16848284       1.78752508      -0.63409938      -0.16848284       1.78752508
O       26.49898981      10.71203847       5.58838635       95       0.74389929      -1.31495334       0.69933861       0.27561277       0.30477655       1.06615975       0.27561277       0.30477655       1.06615975
O       26.46774422      11.39684139       9.34572092       96      -0.80161332      -0.01072665      -0.10774968      -1.12984200       0.35693486       0.26456446      -1.12984200       0.35693486       0.26456446
O       16.97659379      14.33094194       0.31462166       97      -0.19097580      -0.10433773      -0.46727651      -0.67277208       0.16359129      -0.03265846      -0.67277208       0.16359129      -0.03265846
O       10.68437644      12.92762695       7.55888891       98      -0.49907724      -0.79693405       0.25707978      -1.09062002      -2.05857126      -0.05385447      -1.09062002      -2.05857126      -0.05385447
O       19.78275100       4.89437843      13.43411265       99       0.26351564      -1.17898481      -0.40345119      -0.30478262       0.23874874       0.53333786      -0.30478262       0.23874874       0.53333786
O       16.03960979       7.84588374       0.32643214      100      -0.83490461       1.29912892       1.26233579       0.98998037      -0.21060018      -0.02281956       0.98998037      -0.21060018      -0.02281956
O       14.54310522      17.44609868       9.77704137      101       0.08418828      -1.35791491       1.34826651       0.01865177       0.99122923      -1.41268741       0.01865177       0.99122923      -1.41268741
O       22.60106122      14.87468125      13.32946896      102       1.05471151      -0.35084400       0.02622506       1.59065391       1.53567000       1.20094756       1.59065391       1.53567000       1.20094756
O       21.67259751       2.80740691       7.46405433      103       0.97594414      -1.09510643       1.46069682      -0.86316683      -1.88229751      -0.44852319      -0.86316683      -1.88229751      -0.44852319
O       12.54935672      12.46206862      13.25624196      104      -0.16228438      -0.24206767       0.08588445       0.23287669      -0.96930804      -0.00803636       0.23287669      -0.96930804      -0.00803636
O       24.81721986      17.00808402       6.55530670      105       0.35813706       0.75831214       0.31800650       2.51080049       2.04667608       0.91021596       2.51080049       2.04667608       0.91021596
O       21.67808015       9.97911903       0.24949282      106      -0.80952770      -0.27507389       0.45403278       1.05684719       1.74704165      -2.26844286       1.05684719       1.74704165      -2.26844286
O       15.25361623       3.47997435       9.43076100      107       1.02316790      -0.05377954      -0.18729471      -0.21835411       0.29120229      -0.21134974      -0.21835411       0.29120229      -0.21134974
O       23.65027751      17.53471768       9.23769757      108      -1.38275390       0.43723928       0.13479091      -0.83927237      -1.20369675      -1.31326779      -0.83927237      -1.20369675      -1.31326779
O       20.80749781       7.40715212       0.03446604      109       1.63038684      -1.30235135      -0.50263669       0.22795967      -0.06254793       1.91412774       0.22795967      -0.06254793       1.91412774
O       16.57143632       2.93547851       7.15685819      110      -1.27554690      -0.11267158       0.79564244       0.18897571      -2.11564778      -0.83180873       0.18897571      -2.11564778      -0.83180873
O       13.78153966      14.68085817      13.83887672      111       0.47762455       0.33266798       0.96882614       0.25549771       2.35811680      -1.14647856       0.25549771       2.35811680      -1.14647856
O       14.44946513      10.05746856       0.04554368      112       0.64824555      -1.95485365      -0.60123902       0.12424052       0.86888565      -0.34826945       0.12424052       0.86888565      -0.34826945
O       22.75221442       3.41004925       9.67034834      113       0.20475843       0.80876432      -0.88923551       0.38128540       0.06572430      -0.20471934       0.38128540       0.06572430      -0.20471934
O       24.10980438      12.69176739      13.71323311      114       0.45547848       0.57459418      -0.13892324       0.75212340      -0.45010090       0.06560588       0.75212340      -0.45010090       0.06560588
O       13.34119675      16.84738295       7.14887510      115      -1.51835449      -0.68339366       0.37847137       0.80561782       0.18201354       0.71461498       0.80561782       0.18201354       0.71461498
O       17.06632466       4.72186951      13.52346557      116       1.06559629      -0.69195159       1.31934948       0.59845139       1.46801729       0.39816655       0.59845139       1.46801729       0.39816655
O       26.94159604      12.89887670       6.93004439      117       0.20382153      -0.74929031      -0.18390294       2.94098433       0.08092293       0.87006150       2.94098433       0.08092293       0.87006150
O       19.45394622      13.93043039      -0.24384907      118      -0.55658856      -1.67651967       0.48769785      -0.98530535       0.88494196       1.61597450      -0.98530535       0.88494196       1.61597450
O        9.98324049      10.80691243       9.50579238      119      -3.54173026      -1.03582158       0.68113847       0.95143827      -0.04624530       0.03110521       0.95143827      -0.04624530       0.03110521
O       10.21639733      11.09060262       5.53695062      120       0.05728341       1.23198029      -2.12290708      -2.14627049      -0.50270297      -0.34248340      -2.14627049      -0.50270297      -0.34248340
O       19.91011299       6.99786803      15.08263481      121      -0.27397777       0.67025297       1.88516942      -0.79659607       0.75265375      -1.44480846      -0.79659607       0.75265375      -1.44480846
O       26.93973582       8.85185220       7.63040922      122       0.15679051      -0.47026630       0.09312805       0.38641712      -0.21530186      -0.23030536       0.38641712      -0.21530186      -0.23030536
O       17.31859180      16.83344085       1.68367539      123       0.42103680      -0.16402252       1.80887246      -0.26732125       0.37024611       0.34859062      -0.26732125       0.37024611       0.34859062
O       20.81284916      13.97961330      15.16389256      124       1.16953867      -0.44947106       0.16719035      -0.61834164      -0.62965316      -3.96229011      -0.61834164      -0.62965316      -3.96229011
O       23.57983475       4.12111921       5.86221591      125      -0.34996018       1.20890734      -1.39476634      -1.04705280       1.54737294       2.31497216      -1.04705280       1.54737294       2.31497216
O       14.35566239       6.35823659       1.51367829      126       1.50609345      -0.46361956       0.40356187      -0.29821154      -0.03006339       0.25190402      -0.29821154      -0.03006339       0.25190402
O       16.76100490      18.79657801       8.15840330      127       0.31440565       0.99606313      -1.76599646      -1.13056028      -0.35433625       0.35385793      -1.13056028      -0.35433625       0.35385793
O       24.06772755       9.04765201       1.41878340      128      -0.53787941       0.04739440       0.19667018       1.08702163       1.77431811       1.54527632       1.08702163       1.77431811       1.54527632
O       13.29211008       4.75365934       7.88909068      129       0.82565909      -0.57375671      -0.89013339       0.60611142       0.99526014       0.01894237       0.60611142       0.99526014       0.01894237
O       14.34687660      11.27161176      15.21140426      130      -0.33165280      -0.42277895       1.05183132      -0.56316748      -0.79491683       2.10329897      -0.56316748      -0.79491683       2.10329897
O       22.57197042      17.88165312       5.61875761      131      -1.61798911      -0.04706274       0.62792265      -0.90157018      -0.52327752       0.19245363      -0.90157018      -0.52327752       0.19245363
H       14.15654380       4.83839045       3.24771225      132      -0.06813458       0.10865647      -0.26528568       1.30994018       1.42425690       1.29747688       1.30994018       1.42425690       1.29747688
H       18.38429170      13.26406354      15.87480544      133      -0.06152554       0.04411623      -0.32426577       0.40614038      -0.03934736      -1.16736179       0.40614038      -0.03934736      -1.16736179
H       18.90470865      19.21804268       8.80402584      134      -0.03085266       0.09849704       0.28335954       0.22848141       1.82588982      -0.89539259       0.22848141       1.82588982      -0.89539259
H       22.66408082       4.69917145       3.60817410      135       0.27313462      -0.23485145       0.12449553       1.39145126       0.61115194       0.18723665       1.39145126       0.61115194       0.18723665