156
Lattice="18.6238 0.0 0.0 9.311900000000001 16.128683915000625 0.0 9.311900000000001 5.376227971666877 15.20626902388178" Properties=species:S:1:pos:R:3:spacegroup_kinds:I:1:momenta:R:3:force_mace:R:3:forces:R:3 spacegroup="P 1" unit_cell=conventional energy_mace=-1096.3526124065395 energy=-1096.3526124065395 free_energy=-1096.3526124065395 stress="-0.0002888370978851268 -0.0008904148946217849 0.00110054007462731 -0.0008904148946217849 -0.001947854201566424 -0.00035273180424802414 0.00110054007462731 -0.00035273180424802414 0.004131462471382867" pbc="T T T"
Cu      14.45387585       4.25241664       7.77045646        0      -0.54451588      -0.51911840       1.91243403       0.67615652      -0.16761212      -0.16671287       0.67615652      -0.16761212      -0.16671287
Cu      14.65365051      12.65667679      14.06812276        1      -0.37461637      -0.16606669      -1.91112672      -2.24106758       0.53093696      -0.96002840      -2.24106758       0.53093696      -0.96002840
Cu      22.56950369      18.32164598       7.81624851        2       1.33647017       2.68164466      -2.65822787      -0.49921347       0.10032043       0.09357368      -0.49921347       0.10032043       0.09357368
Cu      22.61033112       7.95336314       0.92669449        3      -0.06188963       1.76747189       1.21093297      -0.16900116       0.48317620      -0.18416296      -0.16900116       0.48317620      -0.18416296
Cu      22.84691063      13.13250853      14.14145261        4       3.48841435      -1.71435004      -0.56164597      -0.20324053      -1.07284387      -0.16390659      -0.20324053      -1.07284387      -0.16390659
Cu      14.62827985      17.72972226       7.76503521        5       0.51267608      -2.16841658       1.79534061       0.07303126      -1.11639317       1.17890356       0.07303126      -1.11639317       1.17890356
Cu      14.65838428       8.22877291       0.93851635        6      -0.85772705      -2.57374145      -0.12918863       0.87319165      -0.41862840      -0.38434743       0.87319165      -0.41862840      -0.38434743
Cu      23.00682792       3.64682020       7.70113170        7      -0.78038755      -0.92475523       1.40933513      -1.81076067       0.87730538       0.33110766      -1.81076067       0.87730538       0.33110766
Cu      18.68749478      15.32706767       1.19257407        8      -1.13735369       0.45969014      -0.55366925       0.23834446       0.00896402       0.08900674       0.23834446       0.00896402       0.08900674
Cu      10.24054969      11.06044442       7.02422724        9       3.27313241      -1.79688870      -1.74029110      -0.45767794       0.13532511       0.19995914      -0.45767794       0.13532511       0.19995914
Cu      18.79295759       6.10711542      14.31430095       10       0.43580536       1.24971010       1.55688082       0.29552659      -1.30065924       0.83658689       0.29552659      -1.30065924       0.83658689
Cu      26.42556132      10.99721886       7.33530032       11       0.99435878      -0.91549578       1.60112198       0.06799939       0.14711455      -1.65331569       0.06799939       0.14711455      -1.65331569
C       13.62703853       4.30758380       3.07544189       12       0.56314224       0.00798594      -0.21859812      -0.40043259       1.71684386      -0.01560037      -0.40043259       1.71684386      -0.01560037
C        9.54278716       8.54809633       0.83428525       13       0.68897186       0.08628699       0.13631257      -1.46095667      -0.20210245      -0.75582610      -1.46095667      -0.20210245      -0.75582610
C        9.19864318       4.54393278       8.75110174       14       0.12585050      -1.02630238      -0.00974117       0.57906619       1.07050110       0.56032053       0.57906619       1.07050110       0.56032053
C        5.24405196       4.22930811       3.23995065       15       0.29087929       0.22883275       1.06524429       0.50676370      -0.47664193       0.81275604       0.50676370      -0.47664193       0.81275604
C       12.07998965       3.60666632       1.38896814       16      -1.01263205       1.18616596      -0.17201917       1.86547196       0.67350529       0.14461834       1.86547196       0.67350529       0.14461834
C        6.48648818       2.18980350       3.21414383       17      -0.22664359       0.24299597      -0.43025925       1.84074319      -1.57397350      -0.68017869       1.84074319      -1.57397350      -0.68017869
C       10.45437853       9.32253646       3.00136342       18      -0.85451240      -0.25970712       0.63847648      -0.25192381      -0.08602636      -1.93611903      -0.25192381      -0.08602636      -1.93611903
C        7.91652722       6.46526663       8.25453044       19       0.13574446      -0.38652206      -0.72732723      -1.97884325      -0.25365920      -1.05444665      -1.97884325      -0.25365920      -1.05444665
C       12.28910334       2.26002835       3.38193469       20       0.69099153      -0.60043307       0.84470971      -0.82416371       0.17317139      -0.54103832      -0.82416371       0.17317139      -0.54103832
C       10.33151270       6.61876515       8.30583896       21       0.38636998      -0.63618810       0.82711134       0.03931034      -0.37182229      -0.61368535       0.03931034      -0.37182229      -0.61368535
C        6.18481295       3.40723554       1.11437549       22       0.37680358       0.21560896       0.83907898      -0.77721100       0.28875911       0.58565826      -0.77721100       0.28875911       0.58565826
C        7.99743720       9.04025409       2.65988072       23       0.54474328      -0.76402309      -0.90741521       1.12862131      -0.70874335       1.08898023       1.12862131      -0.70874335       1.08898023
C       26.63702428      11.59140680      11.92326731       24       0.85620268      -0.60722109      -0.98946365       0.07274315      -0.44654170       0.42246141       0.07274315      -0.44654170       0.42246141
C       24.93045408      17.73112119      14.20655134       25       0.05759210       0.52696099       0.56714743      -1.94649998      -1.85280387       0.57518350      -1.94649998      -1.85280387       0.57518350
C       28.85150178      15.72450130       7.05744355       26      -1.44107223      -0.32471157      -0.46161972       3.94877178      -0.28751059       1.02887270       3.94877178      -0.28751059       1.02887270
C       30.92840883      18.98311163      12.34008627       27       0.00375247      -0.02263348       1.60811513      -0.84739142       1.17547707      -0.27792626      -0.84739142       1.17547707      -0.27792626
C       27.97708667      12.10692269      13.89034214       28      -0.58909745       0.29819110      -1.42352418      -0.43725757      -0.20651894      -1.02211200      -0.43725757      -0.20651894      -1.02211200
C       32.08971894      16.89140676      12.40136417       29      -0.02580199      -0.51404140       0.15545365       0.85542830       0.80805180      -2.20048223       0.85542830       0.80805180      -2.20048223
C       23.80879570      17.27130984      12.01287749       30      -0.62905794      -0.04606543       1.00585429      -0.19368871      -1.06909410       0.96673396      -0.19368871      -1.06909410       0.96673396
C       27.93626807      17.95038853       7.08989399       31       0.65969840       0.38776304      -0.51466907      -0.02899704      -3.39228363      -1.38960195      -0.02899704      -3.39228363      -1.38960195
C       29.12801898      11.59305298      11.80477704       32       0.61604853       1.16953407      -0.03254636      -2.76466594      -0.41211343       0.71014585      -2.76466594      -0.41211343       0.71014585
C       26.54825387      15.98356701       6.77085160       33      -0.28737513      -0.71646614      -0.08457345       0.09332307      -0.10952478      -0.24111446       0.09332307      -0.10952478      -0.24111446
C       31.14563518      17.73096918      14.47492486       34      -0.85792009       1.33766041      -0.45902814      -0.55285147      -0.30995984      -1.26337958      -0.55285147      -0.30995984      -1.26337958
C       24.94978793      19.35315142      12.47258099       35       0.66006974       1.38241308       0.44988070      -0.19926594       1.54622325      -0.63299013      -0.19926594       1.54622325      -0.63299013
C       13.52844804       3.28549384       5.27357315       36       0.39410163       1.10859930      -0.21400588      -0.72422009      -0.50127974       1.27684579      -0.72422009      -0.50127974       1.27684579
C       13.04282927       3.30802202       3.84763219       37      -0.68947878      -1.22511472      -0.73081714       1.89683300       0.08748601       1.79524517       1.89683300       0.08748601       1.79524517
C        6.92112248       8.09220465       0.72124023       38       1.40673092       0.66466624      -1.51146278       1.84006173      -0.25554625      -1.94686891       1.84006173      -0.25554625      -1.94686891
C        8.18566294       8.51990446       1.38162749       39      -0.48328403       0.71117601      -1.14037317       1.75657958       0.62812753       0.25850160       1.75657958       0.62812753       0.25850160
C       11.65195329       4.43615118       8.46434649       40      -0.08479412      -0.79810600       0.14044824      -2.02649861       0.08406941       0.02118795      -2.02649861       0.08406941       0.02118795
C       10.37370641       5.29190828       8.62004437       41       0.30997010       0.37874275      -0.42719199       1.03313177      -1.53967346       0.07664115       1.03313177      -1.53967346       0.07664115
C        4.90876034       5.57841888       1.23961014       42       1.28412688       0.87739960      -0.45139576      -0.19392003      -0.45228643      -1.60529049      -0.19392003      -0.45228643      -1.60529049
C        5.35959097       4.29165857       1.86045645       43       1.05479536      -0.09475831       0.28638189       0.67541795       0.98614043      -0.15943802       0.67541795       0.98614043      -0.15943802
C       13.55261274       5.65176284       0.99304344       44      -0.41876728       1.30790536       0.29110230       0.79384583       3.27750098       0.17358739       0.79384583       3.27750098       0.17358739
C       13.02425721       4.57437073       1.82223857       45       1.14303234       0.62214250       0.62170428       0.34847683      -1.48549920       0.73929528       0.34847683      -1.48549920       0.73929528
C        5.31261436       2.93114721       5.33173851       46       0.10579719       0.89557546       0.20088585       1.53253606      -0.42488772       0.32530037       1.53253606      -0.42488772       0.32530037
C        5.77007887       3.05936715       3.93536612       47      -0.01225232       0.56900388       0.21096341      -2.09261953       2.56167652      -0.73606195      -2.09261953       2.56167652      -0.73606195
C       11.97628793       8.82347407       0.98034301       48      -1.26617498      -0.98246536      -0.60252674       2.50134660       0.36480617       0.39152680       2.50134660       0.36480617       0.39152680
C       10.66022430       8.86008984       1.59342084       49      -0.15140461       0.94319607       0.56854247      -0.97738130       0.71269506       2.50357929      -0.97738130       0.71269506       2.50357929
C        6.80493312       4.17909092       8.52875067       50      -0.13027731       0.88050363      -0.16543005      -0.31932706      -0.47005770      -0.16474108      -0.31932706      -0.47005770      -0.16474108
C        7.97101525       5.11614240       8.56861474       51       0.00274287       0.48448978       0.18348555      -0.29168517      -0.77509353       0.43068915      -0.29168517      -0.77509353       0.43068915
C       11.17157208       1.27999174       1.30601242       52       0.68864871       0.16489669       0.73685117       0.97953710       1.94505849      -0.75837834       0.97953710       1.94505849      -0.75837834
C       12.00537055       2.38201767       2.00245702       53      -0.05331938      -0.91919846      -0.25782354      -1.65974273      -1.45797276       0.38461311      -1.65974273      -1.45797276       0.38461311
C        9.03113793       8.55294640       7.59722854       54      -0.74957784       0.36136098      -0.17035044      -3.22075237      -0.31603441       0.92327791      -3.22075237      -0.31603441       0.92327791
C        9.05674114       7.18183234       8.20795981       55       0.01844267      -0.57586292       0.42791446       1.75923065       1.93067969      -0.86233407       1.75923065       1.93067969      -0.86233407
C        7.61501166       1.46693670       1.06590492       56       0.83130689      -0.22331755       0.12886717       1.94100927      -2.72981135      -0.53305630       1.94100927      -2.72981135      -0.53305630
C        6.82061404       2.36852318       1.82237063       57      -0.06434931      -1.13190381       1.83961753      -1.78043196       1.42757750       0.28882455      -1.78043196       1.42757750       0.28882455
C        8.93969578      10.33006742       4.64366122       58      -0.08253492       0.67249263       0.11666276      -0.05235670       1.00650814       0.64713132      -0.05235670       1.00650814       0.64713132
C        9.14593619       9.48789975       3.43716440       59      -0.20651391      -0.56636500      -0.26411000      -0.32312667      -0.04650087      -0.59602499      -0.32312667      -0.04650087      -0.59602499
C       27.80744328      11.24578146       9.69293107       60      -0.27764473       0.73238741      -1.86278301       0.22485468      -0.77177410       0.82775208       0.22485468      -0.77177410       0.82775208
C       27.79149236      11.37028445      11.23970484       61      -1.37856530      -0.14383292       0.52762633       3.15977311       0.63416687      -1.49618183       3.15977311       0.63416687      -1.49618183
C       26.42901378      19.85533802      14.41303931       62      -1.06096699      -0.69030548      -0.65301711      -2.59033583      -2.28169923       1.01101698      -2.59033583      -2.28169923       1.01101698
C       25.23242053      18.97120211      13.79159696       63      -0.43259134      -2.37304593      -0.74676345       2.65075403       2.24076996      -1.12705774       2.65075403       2.24076996      -1.12705774
C       27.61529944      13.60187764       7.06946715       64      -1.34174021      -0.92328030       0.19925001       0.02886652      -0.91003891      -0.55489056       0.02886652      -0.91003891      -0.55489056
C       27.65292884      15.15325621       6.88215690       65       0.88832248       0.74520806      -0.02868866      -1.27451099      -2.10199350       0.47923711      -1.27451099      -2.10199350       0.47923711
C       29.80597611      19.79517569      14.51335220       66       0.81170111       0.14892144       0.87167305      -0.56749021       1.29459438      -2.31794546      -0.56749021       1.29459438      -2.31794546
C       30.61387630      18.77362506      13.70045292       67      -0.40193425       1.14872384       0.79447570      -0.12806831       0.84240270       1.79887107      -0.12806831       0.84240270       1.79887107
C       25.53062036      12.34332513      13.98746969       68       0.01112755      -0.95594799      -0.71890591      -3.17723254       0.43628242       1.03969682      -3.17723254       0.43628242       1.03969682
C       26.68666151      11.87910100      13.30454624       69       0.05546992      -0.21619222       1.29339355       2.48174213       0.40964995      -0.44430892       2.48174213       0.40964995      -0.44430892
C       32.18922481      18.32244259      10.23196713       70       0.86052466      -0.51652071      -0.90299881       1.10351730      -4.38274624       1.99939683       1.10351730      -4.38274624       1.99939683
C       31.72572830      18.07613891      11.67254171       71      -0.81832417       0.93571600      -0.18623155       0.29662598      -0.99286192       0.34263087       0.29662598      -0.99286192       0.34263087
C       24.01742850      15.51420122      13.95510811       72       0.62415749      -0.74812797      -1.54403949      -0.95064571       0.21808890       0.16475558      -0.95064571       0.21808890       0.16475558
C       24.13757868      16.85194653      13.34838733       73      -0.30326041      -0.11944608       1.09041028       1.67173330       1.54655959       0.21528028       1.67173330       1.54655959       0.21528028
C       30.54850071      17.69574089       6.94681482       74      -0.29361424       0.74848069      -0.60937392      -0.21427401      -1.29127594       2.95034571      -0.21427401      -1.29127594       2.95034571
C       29.11126999      17.08267585       6.92131639       75      -1.26656437       0.47266142       0.71907882      -1.15966919       2.54303441       0.15742312      -1.15966919       2.54303441       0.15742312
C       30.45033609      12.29803331      13.82009906       76      -0.36088923      -0.94405703      -0.15024755      -0.13600689      -0.35680196      -1.87188511      -0.13600689      -0.35680196      -1.87188511
C       29.17967780      11.89404492      13.16593346       77       0.32641624       0.28399853      -0.04639672      -1.09026974       0.11163780      -0.04625194      -1.09026974       0.11163780      -0.04625194
C       25.36376110      18.22439128       7.09864160       78      -1.38643532       1.40136546      -0.50081534       0.55680699       0.00838354      -0.75228163       0.55680699       0.00838354      -0.75228163
C       26.63092266      17.35358295       6.88948955       79       0.64926927       0.38100643       1.13928435       1.11164913       1.43605022       0.87795544       1.11164913       1.43605022       0.87795544
C       32.14826654      15.40653200      14.43363073       80      -0.10529680       0.01055605      -0.59526818      -0.27531021       0.26559612       0.00560184      -0.27531021       0.26559612       0.00560184
C       31.77436023      16.74483212      13.72251396       81      -0.01340406       0.62262090      -0.85250149       0.57364141      -1.67648318       1.73132685       0.57364141      -1.67648318       1.73132685
C       23.86418616      18.89868849      10.16967041       82       0.50580627       0.49102992      -0.10363859       1.84941898      -0.03089616       2.24609388       1.84941898      -0.03089616       2.24609388
C       24.33953105      18.50119063      11.55991344       83       0.86063249      -1.01491652      -1.31092639      -1.65422497      -0.70373961       0.22535945      -1.65422497      -0.70373961       0.22535945
O       14.21631074       4.26193963       5.76010070       84       0.18206320       0.35993837      -0.27054037      -1.10742200      -0.56106433      -0.56401794      -1.10742200      -0.56106433      -0.56401794
O       16.33323159      13.08679963      14.63982573       85      -1.59555606       1.12557983      -0.44353867       0.30968703       0.84143923       2.34262320       0.30968703       0.84143923       2.34262320
O       20.78093726      19.33053446       8.40532008       86      -1.21100755      -0.89550276       1.20980724       0.09873591      -1.91623167      -0.19545020       0.09873591      -1.91623167      -0.19545020
O       22.78817687       6.34437814       1.93731405       87      -0.72329681       1.06988050      -0.19112549      -0.04266932      -0.09761830      -0.13262364      -0.04266932      -0.09761830      -0.13262364
O       22.37476573      11.39919113      15.06021998       88      -0.07683952       0.36251294       0.19480058      -0.18156948      -0.76628786       0.74282459      -0.18156948      -0.76628786       0.74282459
O       15.21462745      18.16057969       6.07933710       89       1.47606748       0.09265689       0.07096415      -0.13725417       0.20149998      -1.11948696      -0.13725417       0.20149998      -1.11948696
O       13.07011058       8.87875895       1.78749351       90      -0.09207936       0.98850089      -0.93975421      -2.31983573      -0.24008567      -1.39647450      -2.31983573      -0.24008567      -1.39647450
O       24.41471530       4.80252690       8.01544929       91      -0.82386780      -0.13045596       0.80038757      -0.07193422      -0.05581755       0.14526430      -0.07193422      -0.05581755       0.14526430
O       19.95412822      16.58763006       2.07838814       92       0.47902866       1.32843070      -0.04215800      -0.93140174      -1.34790635       0.60578713      -0.93140174      -1.34790635       0.60578713
O        9.99110158       9.00360429       6.98277634       93       0.62959379      -0.86210734       0.85747120       2.50269567       1.10755807      -0.87808708       2.50269567       1.10755807      -0.87808708
O       17.34407569       7.18692989      15.06918803       94       0.29542833      -0.51077159       0.36583763      -0.22967067      -0.45990865       1.45000372      -0.22967067      -0.45990865       1.45000372
O       26.37317100      10.44542030       5.07251736       95      -0.77691937      -0.04827427       0.31008390       0.51881581       0.06285870       0.80885698       0.51881581       0.06285870       0.80885698
O       26.66670341      11.28028209       9.13803501       96      -1.31395095      -0.16324991      -0.95539408      -0.49673992       0.58932654       1.14643228      -0.49673992       0.58932654       1.14643228
O       17.42792951      14.06145728       0.37266290       97      -0.38795778      -0.27277863      -0.41472514       0.55958460       0.23592755       0.13334035       0.55958460       0.23592755       0.13334035
O       10.16081926      13.05593043       7.26451363       98       0.87162989       1.89109464       0.36142701      -1.04767548       0.26295444      -0.22825167      -1.04767548       0.26295444      -0.22825167
O       20.09649763       4.68204411      13.76470349       99       0.22781880      -1.13381634       0.24992036       0.50631591      -1.13309462       0.67682588       0.50631591      -1.13309462       0.67682588
O       16.30197565       7.57237421      -0.08964854      100      -0.45863444      -0.54973878       1.56308891       0.47518989      -0.22983516      -0.15596577       0.47518989      -0.22983516      -0.15596577
O       14.20638435      17.37240644       9.63655859      101      -1.45297207      -1.14799052      -0.71292063       0.00157811      -0.92138277       0.06999670       0.00157811      -0.92138277       0.06999670
O       23.39919085      14.69161063      13.24364537      102      -0.95630458      -0.41739817      -1.34091977      -0.81965012      -1.17642298      -1.90931410      -0.81965012      -1.17642298      -1.90931410
O       21.28622856       2.83500080       7.20632920      103       0.08830735      -1.51758824      -2.05456473       0.02225085      -0.87972017      -0.58460907       0.02225085      -0.87972017      -0.58460907
O       12.84070448      12.23095114      13.07791650      104      -0.64638303       0.66289847      -0.80291640       2.15629074      -0.39403566      -0.36035657       2.15629074      -0.39403566      -0.36035657
O       24.30169053      17.51043761       7.33980046      105      -0.10741948      -0.15854064       0.28875715       1.36384064       0.72730101       0.22023502       1.36384064       0.72730101       0.22023502
O       22.52931702       9.83467053       0.47990971      106       0.43926999      -0.96664117      -0.90143640       0.01325297       0.36617863      -1.07702036       0.01325297       0.36617863      -1.07702036
O       15.27146413       3.64206780       9.65994445      107       0.56186055       0.48514120       0.39696502       0.56851443       2.07468769      -1.95948823       0.56851443       2.07468769      -1.95948823
O       22.91638317      18.27945142       9.67546731      108       0.51112383       0.66491774      -0.91081224      -1.95383524      -1.35587992      -0.54432306      -1.95383524      -1.35587992      -0.54432306
O       21.05152485       7.46860924      -0.28666179      109      -0.42628743       0.29772463       0.04551302      -0.08504154       1.01847772       3.00798569      -0.08504154       1.01847772       3.00798569
O       16.19791970       3.37861066       6.91801972      110       0.65414266       0.67922930      -0.01668575      -0.73639686      -1.68545464       1.26415677      -0.73639686      -1.68545464       1.26415677
O       14.07286344      14.55776467      13.66696197      111      -1.71882658       0.35106754       2.54780468       0.24490827       0.08352934      -0.17938564       0.24490827       0.08352934      -0.17938564
O       15.03966085       9.88677702      -0.05854003      112       1.44114153      -0.74778837      -0.37803627       0.71719146       0.90099396       1.10404772       0.71719146       0.90099396       1.10404772
O       22.68956078       3.26486650       9.74867773      113      -0.59529642       1.39689511       0.57633855      -1.45388182       5.33008426      -2.10749409      -1.45388182       5.33008426      -2.10749409
O       24.38499521      12.12163058      13.38427734      114      -0.03184334       0.97638055      -0.11769109       0.65780226       0.27232127       0.26824154       0.65780226       0.27232127       0.26824154
O       12.84969443      16.80415766       7.28117973      115       0.99047318       0.98128118      -1.45632222      -0.88425646       1.61804750      -1.27932305      -0.88425646       1.61804750      -1.27932305
O       17.53127279       4.68522636      13.76382164      116      -2.04461555       0.35001143       1.07603988       0.02500542       1.28078129      -1.24292149       0.02500542       1.28078129      -1.24292149
O       26.50813501      12.92014532       6.95035769      117      -0.76890183       0.97237378       1.78077729       0.75469549       1.23699613      -0.00624033       0.75469549       1.23699613      -0.00624033
O       20.21500280      14.20165364       0.52110659      118       0.08172896      -0.17480787      -0.33892625      -0.08818192       0.07045417       0.26425598      -0.08818192       0.07045417       0.26425598
O       10.29635690      11.00193193       9.11104619      119       1.77194133      -0.30204578       0.81964459      -0.00920909       0.11363421      -0.35697636      -0.00920909       0.11363421      -0.35697636
O        9.98664409      11.03009041       5.06614842      120      -0.52608390      -0.44762855       0.43230340      -0.75863937      -0.89803509       0.10092278      -0.75863937      -0.89803509       0.10092278
O       20.36417163       6.75896074      15.23332740      121      -0.39442220      -0.68006070      -1.12346030       0.04927146       0.51162636       0.64961256       0.04927146       0.51162636       0.64961256
O       26.47433370       9.12795709       7.63836594      122       0.71461003      -0.50234044      -1.07894363       0.35323907      -0.52996212       0.13775403       0.35323907      -0.52996212       0.13775403
O       17.17315288      16.43158310       1.69753307      123      -1.21496186       0.71676210      -0.33506230      -0.14990181       1.92889549      -1.23811029      -0.14990181       1.92889549      -1.23811029
O       21.33317709      14.20441511      14.89725675      124       0.82866978      -0.65267112      -0.71923908       0.24566715      -0.55805908       0.82994672       0.24566715      -0.55805908       0.82994672
O       23.17628891       3.84917085       5.73990904      125      -0.61115770       0.46553949      -0.77461201      -0.32430632       0.10921486       0.36228152      -0.32430632       0.10921486       0.36228152
O       14.44312633       6.40323900       1.65161896      126       0.59120063      -1.62566876       0.01684937      -0.95443082      -0.78784621      -0.96527885      -0.95443082      -0.78784621      -0.96527885
O       16.15413697      19.06514812       8.84050582      127      -1.06103355      -0.26066009      -1.10141765       0.39437799       1.29236281      -0.44674078       0.39437799       1.29236281      -0.44674078
O       24.55752859       8.17024725       1.48631941      128      -0.16093792      -0.78321823       0.60325498      -1.05204293      -0.09687563      -0.34638712      -1.05204293      -0.09687563      -0.34638712
O       12.72497484       5.00150899       8.22686823      129       1.17244580       0.84431406      -0.11099821       2.60018364       2.02796845      -0.21960872       2.60018364       2.02796845      -0.21960872
O       14.52702288      11.15172725      15.17685628      130       0.22325647      -0.67485968       1.18307736      -0.14286907      -1.53791433       1.79271915      -0.14286907      -1.53791433       1.79271915
O       22.38770955      18.36910396       5.95127758      131      -0.04604893       0.39823426       1.91579991      -0.00602807       1.31433289      -0.97822228      -0.00602807       1.31433289      -0.97822228
H       14.29363716       5.06659736       3.59286009      132      -0.07011075      -0.33831807       0.23340975      -0.59234962      -1.02114727      -0.84201970      -0.59234962      -1.02114727      -0.84201970
H       19.02897970      13.75215597      14.95634573      133       0.04379029      -0.05863978      -0.13121269      -0.21262532      -0.16142616       0.62792555      -0.21262532      -0.16142616       0.62792555
H       18.58620928      19.68101424       9.04455548      134       0.31321818       0.04914232       0.11646144       0.12937331      -1.86983251       0.30552551       0.12937331      -1.86983251       0.30552551
H       23.47249252       5.08664373       3.82714183      135      -0.09275086      -0.25587798       0.07931858      -0.04983393      -0.76810692      -0.47897840      -0.04983393      -0.76810692      -0.47897840